file 44316560 1633963979                                        
version 2
run General-1-20211011-15:52:47-39324
attr configname General
attr datetime 20211011-15:52:47
attr experiment General
attr inifile exp1-1-seed1.ini
attr iterationvars "$FatTreeSize=6, $0=\"permTM\", $numShortFlows=2000, $1=8"
attr iterationvarsf FatTreeSize=6,permTM,numShortFlows=2000,8-
attr measurement "$FatTreeSize=6, $0=\"permTM\", $numShortFlows=2000, $1=8"
attr network FatTreeNdp
attr processid 39324
attr repetition 0
attr replication #0
attr resultdir exp1-1-seed1
attr runnumber 1
attr seedset 1
itervar FatTreeSize 6
itervar numShortFlows 2000
param **.k 6
param **.kValue 6
param **.trafficMatrixType "\"permTM\""
param **.arrivalRate 2000
param **.shuffle true
param **.flowSize 100
param **.numShortFlows 2000
param **.longFlowSize 100000
param **.percentLongFlowNodes 0.15
param **.initialWindow 15
param **.IW 15
param **.ndpSwitchQueueLength 8
param **.isWebSearchWorkLoad false
param **.perPacketEcmp true
param **.perFlowEcmp false
param **.seedValue 1111
param **.numIncastSenders 70
param **.oneToOne true
param **.oneToMany false
param **.manyToOne false
param **.daisyChainGFS false
param **.numReplica 3
param **.numRunningMulticastGroups 22
param **.numRunningMultiSourcingGroups 1667
param **.servers*.ppp[*].ppp.queue.typename "\"DropTailQueue\""
param **.servers*.ppp[*].ppp.queue.packetCapacity -1
param **.ppp[*].ppp.queue.typename "\"NDPQueue\""
param **.ppp[*].ppp.queue.packetCapacity 8
param **.ndp.typename "\"Ndp\""
param **.ndp.ndpAlgorithmClass "\"DumbNDP\""
param **.ndp.mss 1460
param **.server*.numApps 1
param **.server*.app[0].typename "\"NdpBasicClientApp\""
param **.server*.app[0].connectAddress "\"FatTreeNdp.Pod[*].racks[*].servers[*]\""
param **.server*.app[0].connectPort 80
param **.server*.app[0].startTime 0s
param **.server*.app[0].numPacketsToSend 0

vector 0 FatTreeNdp.Pod[0].racks[0].servers[0].ppp[0].ppp transmissionState:vector ETV
attr interpolationmode sample-hold
attr source transmissionStateChanged
attr title "tx state, vector"
vector 1 FatTreeNdp.Pod[0].racks[0].servers[1].ppp[0].ppp transmissionState:vector ETV
attr interpolationmode sample-hold
attr source transmissionStateChanged
attr title "tx state, vector"
vector 2 FatTreeNdp.Pod[0].racks[0].servers[2].ppp[0].ppp transmissionState:vector ETV
attr interpolationmode sample-hold
attr source transmissionStateChanged
attr title "tx state, vector"
vector 3 FatTreeNdp.Pod[0].racks[0].edgeSwitch.ppp[0].ppp transmissionState:vector ETV
attr interpolationmode sample-hold
attr source transmissionStateChanged
attr title "tx state, vector"
vector 4 FatTreeNdp.Pod[0].racks[0].edgeSwitch.ppp[0].ppp.queue dataQueueLength:vector ETV
attr interpolationmode sample-hold
attr title "queue length, vector"
vector 5 FatTreeNdp.Pod[0].racks[0].edgeSwitch.ppp[0].ppp.queue headersQueueLength:vector ETV
attr interpolationmode sample-hold
attr title "queue length, vector"
vector 6 FatTreeNdp.Pod[0].racks[0].edgeSwitch.ppp[1].ppp transmissionState:vector ETV
attr interpolationmode sample-hold
attr source transmissionStateChanged
attr title "tx state, vector"
vector 7 FatTreeNdp.Pod[0].racks[0].edgeSwitch.ppp[1].ppp.queue dataQueueLength:vector ETV
attr interpolationmode sample-hold
attr title "queue length, vector"
vector 8 FatTreeNdp.Pod[0].racks[0].edgeSwitch.ppp[1].ppp.queue headersQueueLength:vector ETV
attr interpolationmode sample-hold
attr title "queue length, vector"
vector 9 FatTreeNdp.Pod[0].racks[0].edgeSwitch.ppp[2].ppp transmissionState:vector ETV
attr interpolationmode sample-hold
attr source transmissionStateChanged
attr title "tx state, vector"
vector 10 FatTreeNdp.Pod[0].racks[0].edgeSwitch.ppp[2].ppp.queue dataQueueLength:vector ETV
attr interpolationmode sample-hold
attr title "queue length, vector"
vector 11 FatTreeNdp.Pod[0].racks[0].edgeSwitch.ppp[2].ppp.queue headersQueueLength:vector ETV
attr interpolationmode sample-hold
attr title "queue length, vector"
vector 12 FatTreeNdp.Pod[0].racks[0].edgeSwitch.ppp[3].ppp transmissionState:vector ETV
attr interpolationmode sample-hold
attr source transmissionStateChanged
attr title "tx state, vector"
vector 13 FatTreeNdp.Pod[0].racks[0].edgeSwitch.ppp[3].ppp.queue dataQueueLength:vector ETV
attr interpolationmode sample-hold
attr title "queue length, vector"
vector 14 FatTreeNdp.Pod[0].racks[0].edgeSwitch.ppp[3].ppp.queue headersQueueLength:vector ETV
attr interpolationmode sample-hold
attr title "queue length, vector"
vector 15 FatTreeNdp.Pod[0].racks[0].edgeSwitch.ppp[4].ppp transmissionState:vector ETV
attr interpolationmode sample-hold
attr source transmissionStateChanged
attr title "tx state, vector"
vector 16 FatTreeNdp.Pod[0].racks[0].edgeSwitch.ppp[4].ppp.queue dataQueueLength:vector ETV
attr interpolationmode sample-hold
attr title "queue length, vector"
vector 17 FatTreeNdp.Pod[0].racks[0].edgeSwitch.ppp[4].ppp.queue headersQueueLength:vector ETV
attr interpolationmode sample-hold
attr title "queue length, vector"
vector 18 FatTreeNdp.Pod[0].racks[0].edgeSwitch.ppp[5].ppp transmissionState:vector ETV
attr interpolationmode sample-hold
attr source transmissionStateChanged
attr title "tx state, vector"
vector 19 FatTreeNdp.Pod[0].racks[0].edgeSwitch.ppp[5].ppp.queue dataQueueLength:vector ETV
attr interpolationmode sample-hold
attr title "queue length, vector"
vector 20 FatTreeNdp.Pod[0].racks[0].edgeSwitch.ppp[5].ppp.queue headersQueueLength:vector ETV
attr interpolationmode sample-hold
attr title "queue length, vector"
vector 21 FatTreeNdp.Pod[0].racks[1].servers[0].ppp[0].ppp transmissionState:vector ETV
attr interpolationmode sample-hold
attr source transmissionStateChanged
attr title "tx state, vector"
vector 22 FatTreeNdp.Pod[0].racks[1].servers[1].ppp[0].ppp transmissionState:vector ETV
attr interpolationmode sample-hold
attr source transmissionStateChanged
attr title "tx state, vector"
vector 23 FatTreeNdp.Pod[0].racks[1].servers[2].ppp[0].ppp transmissionState:vector ETV
attr interpolationmode sample-hold
attr source transmissionStateChanged
attr title "tx state, vector"
vector 24 FatTreeNdp.Pod[0].racks[1].edgeSwitch.ppp[0].ppp transmissionState:vector ETV
attr interpolationmode sample-hold
attr source transmissionStateChanged
attr title "tx state, vector"
vector 25 FatTreeNdp.Pod[0].racks[1].edgeSwitch.ppp[0].ppp.queue dataQueueLength:vector ETV
attr interpolationmode sample-hold
attr title "queue length, vector"
vector 26 FatTreeNdp.Pod[0].racks[1].edgeSwitch.ppp[0].ppp.queue headersQueueLength:vector ETV
attr interpolationmode sample-hold
attr title "queue length, vector"
vector 27 FatTreeNdp.Pod[0].racks[1].edgeSwitch.ppp[1].ppp transmissionState:vector ETV
attr interpolationmode sample-hold
attr source transmissionStateChanged
attr title "tx state, vector"
vector 28 FatTreeNdp.Pod[0].racks[1].edgeSwitch.ppp[1].ppp.queue dataQueueLength:vector ETV
attr interpolationmode sample-hold
attr title "queue length, vector"
vector 29 FatTreeNdp.Pod[0].racks[1].edgeSwitch.ppp[1].ppp.queue headersQueueLength:vector ETV
attr interpolationmode sample-hold
attr title "queue length, vector"
vector 30 FatTreeNdp.Pod[0].racks[1].edgeSwitch.ppp[2].ppp transmissionState:vector ETV
attr interpolationmode sample-hold
attr source transmissionStateChanged
attr title "tx state, vector"
vector 31 FatTreeNdp.Pod[0].racks[1].edgeSwitch.ppp[2].ppp.queue dataQueueLength:vector ETV
attr interpolationmode sample-hold
attr title "queue length, vector"
vector 32 FatTreeNdp.Pod[0].racks[1].edgeSwitch.ppp[2].ppp.queue headersQueueLength:vector ETV
attr interpolationmode sample-hold
attr title "queue length, vector"
vector 33 FatTreeNdp.Pod[0].racks[1].edgeSwitch.ppp[3].ppp transmissionState:vector ETV
attr interpolationmode sample-hold
attr source transmissionStateChanged
attr title "tx state, vector"
vector 34 FatTreeNdp.Pod[0].racks[1].edgeSwitch.ppp[3].ppp.queue dataQueueLength:vector ETV
attr interpolationmode sample-hold
attr title "queue length, vector"
vector 35 FatTreeNdp.Pod[0].racks[1].edgeSwitch.ppp[3].ppp.queue headersQueueLength:vector ETV
attr interpolationmode sample-hold
attr title "queue length, vector"
vector 36 FatTreeNdp.Pod[0].racks[1].edgeSwitch.ppp[4].ppp transmissionState:vector ETV
attr interpolationmode sample-hold
attr source transmissionStateChanged
attr title "tx state, vector"
vector 37 FatTreeNdp.Pod[0].racks[1].edgeSwitch.ppp[4].ppp.queue dataQueueLength:vector ETV
attr interpolationmode sample-hold
attr title "queue length, vector"
vector 38 FatTreeNdp.Pod[0].racks[1].edgeSwitch.ppp[4].ppp.queue headersQueueLength:vector ETV
attr interpolationmode sample-hold
attr title "queue length, vector"
vector 39 FatTreeNdp.Pod[0].racks[1].edgeSwitch.ppp[5].ppp transmissionState:vector ETV
attr interpolationmode sample-hold
attr source transmissionStateChanged
attr title "tx state, vector"
vector 40 FatTreeNdp.Pod[0].racks[1].edgeSwitch.ppp[5].ppp.queue dataQueueLength:vector ETV
attr interpolationmode sample-hold
attr title "queue length, vector"
vector 41 FatTreeNdp.Pod[0].racks[1].edgeSwitch.ppp[5].ppp.queue headersQueueLength:vector ETV
attr interpolationmode sample-hold
attr title "queue length, vector"
vector 42 FatTreeNdp.Pod[0].racks[2].servers[0].ppp[0].ppp transmissionState:vector ETV
attr interpolationmode sample-hold
attr source transmissionStateChanged
attr title "tx state, vector"
vector 43 FatTreeNdp.Pod[0].racks[2].servers[1].ppp[0].ppp transmissionState:vector ETV
attr interpolationmode sample-hold
attr source transmissionStateChanged
attr title "tx state, vector"
vector 44 FatTreeNdp.Pod[0].racks[2].servers[2].ppp[0].ppp transmissionState:vector ETV
attr interpolationmode sample-hold
attr source transmissionStateChanged
attr title "tx state, vector"
vector 45 FatTreeNdp.Pod[0].racks[2].edgeSwitch.ppp[0].ppp transmissionState:vector ETV
attr interpolationmode sample-hold
attr source transmissionStateChanged
attr title "tx state, vector"
vector 46 FatTreeNdp.Pod[0].racks[2].edgeSwitch.ppp[0].ppp.queue dataQueueLength:vector ETV
attr interpolationmode sample-hold
attr title "queue length, vector"
vector 47 FatTreeNdp.Pod[0].racks[2].edgeSwitch.ppp[0].ppp.queue headersQueueLength:vector ETV
attr interpolationmode sample-hold
attr title "queue length, vector"
vector 48 FatTreeNdp.Pod[0].racks[2].edgeSwitch.ppp[1].ppp transmissionState:vector ETV
attr interpolationmode sample-hold
attr source transmissionStateChanged
attr title "tx state, vector"
vector 49 FatTreeNdp.Pod[0].racks[2].edgeSwitch.ppp[1].ppp.queue dataQueueLength:vector ETV
attr interpolationmode sample-hold
attr title "queue length, vector"
vector 50 FatTreeNdp.Pod[0].racks[2].edgeSwitch.ppp[1].ppp.queue headersQueueLength:vector ETV
attr interpolationmode sample-hold
attr title "queue length, vector"
vector 51 FatTreeNdp.Pod[0].racks[2].edgeSwitch.ppp[2].ppp transmissionState:vector ETV
attr interpolationmode sample-hold
attr source transmissionStateChanged
attr title "tx state, vector"
vector 52 FatTreeNdp.Pod[0].racks[2].edgeSwitch.ppp[2].ppp.queue dataQueueLength:vector ETV
attr interpolationmode sample-hold
attr title "queue length, vector"
vector 53 FatTreeNdp.Pod[0].racks[2].edgeSwitch.ppp[2].ppp.queue headersQueueLength:vector ETV
attr interpolationmode sample-hold
attr title "queue length, vector"
vector 54 FatTreeNdp.Pod[0].racks[2].edgeSwitch.ppp[3].ppp transmissionState:vector ETV
attr interpolationmode sample-hold
attr source transmissionStateChanged
attr title "tx state, vector"
vector 55 FatTreeNdp.Pod[0].racks[2].edgeSwitch.ppp[3].ppp.queue dataQueueLength:vector ETV
attr interpolationmode sample-hold
attr title "queue length, vector"
vector 56 FatTreeNdp.Pod[0].racks[2].edgeSwitch.ppp[3].ppp.queue headersQueueLength:vector ETV
attr interpolationmode sample-hold
attr title "queue length, vector"
vector 57 FatTreeNdp.Pod[0].racks[2].edgeSwitch.ppp[4].ppp transmissionState:vector ETV
attr interpolationmode sample-hold
attr source transmissionStateChanged
attr title "tx state, vector"
vector 58 FatTreeNdp.Pod[0].racks[2].edgeSwitch.ppp[4].ppp.queue dataQueueLength:vector ETV
attr interpolationmode sample-hold
attr title "queue length, vector"
vector 59 FatTreeNdp.Pod[0].racks[2].edgeSwitch.ppp[4].ppp.queue headersQueueLength:vector ETV
attr interpolationmode sample-hold
attr title "queue length, vector"
vector 60 FatTreeNdp.Pod[0].racks[2].edgeSwitch.ppp[5].ppp transmissionState:vector ETV
attr interpolationmode sample-hold
attr source transmissionStateChanged
attr title "tx state, vector"
vector 61 FatTreeNdp.Pod[0].racks[2].edgeSwitch.ppp[5].ppp.queue dataQueueLength:vector ETV
attr interpolationmode sample-hold
attr title "queue length, vector"
vector 62 FatTreeNdp.Pod[0].racks[2].edgeSwitch.ppp[5].ppp.queue headersQueueLength:vector ETV
attr interpolationmode sample-hold
attr title "queue length, vector"
vector 63 FatTreeNdp.Pod[0].aggRouters[0].ppp[0].ppp transmissionState:vector ETV
attr interpolationmode sample-hold
attr source transmissionStateChanged
attr title "tx state, vector"
vector 64 FatTreeNdp.Pod[0].aggRouters[0].ppp[0].ppp.queue dataQueueLength:vector ETV
attr interpolationmode sample-hold
attr title "queue length, vector"
vector 65 FatTreeNdp.Pod[0].aggRouters[0].ppp[0].ppp.queue headersQueueLength:vector ETV
attr interpolationmode sample-hold
attr title "queue length, vector"
vector 66 FatTreeNdp.Pod[0].aggRouters[0].ppp[1].ppp transmissionState:vector ETV
attr interpolationmode sample-hold
attr source transmissionStateChanged
attr title "tx state, vector"
vector 67 FatTreeNdp.Pod[0].aggRouters[0].ppp[1].ppp.queue dataQueueLength:vector ETV
attr interpolationmode sample-hold
attr title "queue length, vector"
vector 68 FatTreeNdp.Pod[0].aggRouters[0].ppp[1].ppp.queue headersQueueLength:vector ETV
attr interpolationmode sample-hold
attr title "queue length, vector"
vector 69 FatTreeNdp.Pod[0].aggRouters[0].ppp[2].ppp transmissionState:vector ETV
attr interpolationmode sample-hold
attr source transmissionStateChanged
attr title "tx state, vector"
vector 70 FatTreeNdp.Pod[0].aggRouters[0].ppp[2].ppp.queue dataQueueLength:vector ETV
attr interpolationmode sample-hold
attr title "queue length, vector"
vector 71 FatTreeNdp.Pod[0].aggRouters[0].ppp[2].ppp.queue headersQueueLength:vector ETV
attr interpolationmode sample-hold
attr title "queue length, vector"
vector 72 FatTreeNdp.Pod[0].aggRouters[0].ppp[3].ppp transmissionState:vector ETV
attr interpolationmode sample-hold
attr source transmissionStateChanged
attr title "tx state, vector"
vector 73 FatTreeNdp.Pod[0].aggRouters[0].ppp[3].ppp.queue dataQueueLength:vector ETV
attr interpolationmode sample-hold
attr title "queue length, vector"
vector 74 FatTreeNdp.Pod[0].aggRouters[0].ppp[3].ppp.queue headersQueueLength:vector ETV
attr interpolationmode sample-hold
attr title "queue length, vector"
vector 75 FatTreeNdp.Pod[0].aggRouters[0].ppp[4].ppp transmissionState:vector ETV
attr interpolationmode sample-hold
attr source transmissionStateChanged
attr title "tx state, vector"
vector 76 FatTreeNdp.Pod[0].aggRouters[0].ppp[4].ppp.queue dataQueueLength:vector ETV
attr interpolationmode sample-hold
attr title "queue length, vector"
vector 77 FatTreeNdp.Pod[0].aggRouters[0].ppp[4].ppp.queue headersQueueLength:vector ETV
attr interpolationmode sample-hold
attr title "queue length, vector"
vector 78 FatTreeNdp.Pod[0].aggRouters[0].ppp[5].ppp transmissionState:vector ETV
attr interpolationmode sample-hold
attr source transmissionStateChanged
attr title "tx state, vector"
vector 79 FatTreeNdp.Pod[0].aggRouters[0].ppp[5].ppp.queue dataQueueLength:vector ETV
attr interpolationmode sample-hold
attr title "queue length, vector"
vector 80 FatTreeNdp.Pod[0].aggRouters[0].ppp[5].ppp.queue headersQueueLength:vector ETV
attr interpolationmode sample-hold
attr title "queue length, vector"
vector 81 FatTreeNdp.Pod[0].aggRouters[1].ppp[0].ppp transmissionState:vector ETV
attr interpolationmode sample-hold
attr source transmissionStateChanged
attr title "tx state, vector"
vector 82 FatTreeNdp.Pod[0].aggRouters[1].ppp[0].ppp.queue dataQueueLength:vector ETV
attr interpolationmode sample-hold
attr title "queue length, vector"
vector 83 FatTreeNdp.Pod[0].aggRouters[1].ppp[0].ppp.queue headersQueueLength:vector ETV
attr interpolationmode sample-hold
attr title "queue length, vector"
vector 84 FatTreeNdp.Pod[0].aggRouters[1].ppp[1].ppp transmissionState:vector ETV
attr interpolationmode sample-hold
attr source transmissionStateChanged
attr title "tx state, vector"
vector 85 FatTreeNdp.Pod[0].aggRouters[1].ppp[1].ppp.queue dataQueueLength:vector ETV
attr interpolationmode sample-hold
attr title "queue length, vector"
vector 86 FatTreeNdp.Pod[0].aggRouters[1].ppp[1].ppp.queue headersQueueLength:vector ETV
attr interpolationmode sample-hold
attr title "queue length, vector"
vector 87 FatTreeNdp.Pod[0].aggRouters[1].ppp[2].ppp transmissionState:vector ETV
attr interpolationmode sample-hold
attr source transmissionStateChanged
attr title "tx state, vector"
vector 88 FatTreeNdp.Pod[0].aggRouters[1].ppp[2].ppp.queue dataQueueLength:vector ETV
attr interpolationmode sample-hold
attr title "queue length, vector"
vector 89 FatTreeNdp.Pod[0].aggRouters[1].ppp[2].ppp.queue headersQueueLength:vector ETV
attr interpolationmode sample-hold
attr title "queue length, vector"
vector 90 FatTreeNdp.Pod[0].aggRouters[1].ppp[3].ppp transmissionState:vector ETV
attr interpolationmode sample-hold
attr source transmissionStateChanged
attr title "tx state, vector"
vector 91 FatTreeNdp.Pod[0].aggRouters[1].ppp[3].ppp.queue dataQueueLength:vector ETV
attr interpolationmode sample-hold
attr title "queue length, vector"
vector 92 FatTreeNdp.Pod[0].aggRouters[1].ppp[3].ppp.queue headersQueueLength:vector ETV
attr interpolationmode sample-hold
attr title "queue length, vector"
vector 93 FatTreeNdp.Pod[0].aggRouters[1].ppp[4].ppp transmissionState:vector ETV
attr interpolationmode sample-hold
attr source transmissionStateChanged
attr title "tx state, vector"
vector 94 FatTreeNdp.Pod[0].aggRouters[1].ppp[4].ppp.queue dataQueueLength:vector ETV
attr interpolationmode sample-hold
attr title "queue length, vector"
vector 95 FatTreeNdp.Pod[0].aggRouters[1].ppp[4].ppp.queue headersQueueLength:vector ETV
attr interpolationmode sample-hold
attr title "queue length, vector"
vector 96 FatTreeNdp.Pod[0].aggRouters[1].ppp[5].ppp transmissionState:vector ETV
attr interpolationmode sample-hold
attr source transmissionStateChanged
attr title "tx state, vector"
vector 97 FatTreeNdp.Pod[0].aggRouters[1].ppp[5].ppp.queue dataQueueLength:vector ETV
attr interpolationmode sample-hold
attr title "queue length, vector"
vector 98 FatTreeNdp.Pod[0].aggRouters[1].ppp[5].ppp.queue headersQueueLength:vector ETV
attr interpolationmode sample-hold
attr title "queue length, vector"
vector 99 FatTreeNdp.Pod[0].aggRouters[2].ppp[0].ppp transmissionState:vector ETV
attr interpolationmode sample-hold
attr source transmissionStateChanged
attr title "tx state, vector"
vector 100 FatTreeNdp.Pod[0].aggRouters[2].ppp[0].ppp.queue dataQueueLength:vector ETV
attr interpolationmode sample-hold
attr title "queue length, vector"
vector 101 FatTreeNdp.Pod[0].aggRouters[2].ppp[0].ppp.queue headersQueueLength:vector ETV
attr interpolationmode sample-hold
attr title "queue length, vector"
vector 102 FatTreeNdp.Pod[0].aggRouters[2].ppp[1].ppp transmissionState:vector ETV
attr interpolationmode sample-hold
attr source transmissionStateChanged
attr title "tx state, vector"
vector 103 FatTreeNdp.Pod[0].aggRouters[2].ppp[1].ppp.queue dataQueueLength:vector ETV
attr interpolationmode sample-hold
attr title "queue length, vector"
vector 104 FatTreeNdp.Pod[0].aggRouters[2].ppp[1].ppp.queue headersQueueLength:vector ETV
attr interpolationmode sample-hold
attr title "queue length, vector"
vector 105 FatTreeNdp.Pod[0].aggRouters[2].ppp[2].ppp transmissionState:vector ETV
attr interpolationmode sample-hold
attr source transmissionStateChanged
attr title "tx state, vector"
vector 106 FatTreeNdp.Pod[0].aggRouters[2].ppp[2].ppp.queue dataQueueLength:vector ETV
attr interpolationmode sample-hold
attr title "queue length, vector"
vector 107 FatTreeNdp.Pod[0].aggRouters[2].ppp[2].ppp.queue headersQueueLength:vector ETV
attr interpolationmode sample-hold
attr title "queue length, vector"
vector 108 FatTreeNdp.Pod[0].aggRouters[2].ppp[3].ppp transmissionState:vector ETV
attr interpolationmode sample-hold
attr source transmissionStateChanged
attr title "tx state, vector"
vector 109 FatTreeNdp.Pod[0].aggRouters[2].ppp[3].ppp.queue dataQueueLength:vector ETV
attr interpolationmode sample-hold
attr title "queue length, vector"
vector 110 FatTreeNdp.Pod[0].aggRouters[2].ppp[3].ppp.queue headersQueueLength:vector ETV
attr interpolationmode sample-hold
attr title "queue length, vector"
vector 111 FatTreeNdp.Pod[0].aggRouters[2].ppp[4].ppp transmissionState:vector ETV
attr interpolationmode sample-hold
attr source transmissionStateChanged
attr title "tx state, vector"
vector 112 FatTreeNdp.Pod[0].aggRouters[2].ppp[4].ppp.queue dataQueueLength:vector ETV
attr interpolationmode sample-hold
attr title "queue length, vector"
vector 113 FatTreeNdp.Pod[0].aggRouters[2].ppp[4].ppp.queue headersQueueLength:vector ETV
attr interpolationmode sample-hold
attr title "queue length, vector"
vector 114 FatTreeNdp.Pod[0].aggRouters[2].ppp[5].ppp transmissionState:vector ETV
attr interpolationmode sample-hold
attr source transmissionStateChanged
attr title "tx state, vector"
vector 115 FatTreeNdp.Pod[0].aggRouters[2].ppp[5].ppp.queue dataQueueLength:vector ETV
attr interpolationmode sample-hold
attr title "queue length, vector"
vector 116 FatTreeNdp.Pod[0].aggRouters[2].ppp[5].ppp.queue headersQueueLength:vector ETV
attr interpolationmode sample-hold
attr title "queue length, vector"
vector 117 FatTreeNdp.Pod[1].racks[0].servers[0].ppp[0].ppp transmissionState:vector ETV
attr interpolationmode sample-hold
attr source transmissionStateChanged
attr title "tx state, vector"
vector 118 FatTreeNdp.Pod[1].racks[0].servers[1].ppp[0].ppp transmissionState:vector ETV
attr interpolationmode sample-hold
attr source transmissionStateChanged
attr title "tx state, vector"
vector 119 FatTreeNdp.Pod[1].racks[0].servers[2].ppp[0].ppp transmissionState:vector ETV
attr interpolationmode sample-hold
attr source transmissionStateChanged
attr title "tx state, vector"
vector 120 FatTreeNdp.Pod[1].racks[0].edgeSwitch.ppp[0].ppp transmissionState:vector ETV
attr interpolationmode sample-hold
attr source transmissionStateChanged
attr title "tx state, vector"
vector 121 FatTreeNdp.Pod[1].racks[0].edgeSwitch.ppp[0].ppp.queue dataQueueLength:vector ETV
attr interpolationmode sample-hold
attr title "queue length, vector"
vector 122 FatTreeNdp.Pod[1].racks[0].edgeSwitch.ppp[0].ppp.queue headersQueueLength:vector ETV
attr interpolationmode sample-hold
attr title "queue length, vector"
vector 123 FatTreeNdp.Pod[1].racks[0].edgeSwitch.ppp[1].ppp transmissionState:vector ETV
attr interpolationmode sample-hold
attr source transmissionStateChanged
attr title "tx state, vector"
vector 124 FatTreeNdp.Pod[1].racks[0].edgeSwitch.ppp[1].ppp.queue dataQueueLength:vector ETV
attr interpolationmode sample-hold
attr title "queue length, vector"
vector 125 FatTreeNdp.Pod[1].racks[0].edgeSwitch.ppp[1].ppp.queue headersQueueLength:vector ETV
attr interpolationmode sample-hold
attr title "queue length, vector"
vector 126 FatTreeNdp.Pod[1].racks[0].edgeSwitch.ppp[2].ppp transmissionState:vector ETV
attr interpolationmode sample-hold
attr source transmissionStateChanged
attr title "tx state, vector"
vector 127 FatTreeNdp.Pod[1].racks[0].edgeSwitch.ppp[2].ppp.queue dataQueueLength:vector ETV
attr interpolationmode sample-hold
attr title "queue length, vector"
vector 128 FatTreeNdp.Pod[1].racks[0].edgeSwitch.ppp[2].ppp.queue headersQueueLength:vector ETV
attr interpolationmode sample-hold
attr title "queue length, vector"
vector 129 FatTreeNdp.Pod[1].racks[0].edgeSwitch.ppp[3].ppp transmissionState:vector ETV
attr interpolationmode sample-hold
attr source transmissionStateChanged
attr title "tx state, vector"
vector 130 FatTreeNdp.Pod[1].racks[0].edgeSwitch.ppp[3].ppp.queue dataQueueLength:vector ETV
attr interpolationmode sample-hold
attr title "queue length, vector"
vector 131 FatTreeNdp.Pod[1].racks[0].edgeSwitch.ppp[3].ppp.queue headersQueueLength:vector ETV
attr interpolationmode sample-hold
attr title "queue length, vector"
vector 132 FatTreeNdp.Pod[1].racks[0].edgeSwitch.ppp[4].ppp transmissionState:vector ETV
attr interpolationmode sample-hold
attr source transmissionStateChanged
attr title "tx state, vector"
vector 133 FatTreeNdp.Pod[1].racks[0].edgeSwitch.ppp[4].ppp.queue dataQueueLength:vector ETV
attr interpolationmode sample-hold
attr title "queue length, vector"
vector 134 FatTreeNdp.Pod[1].racks[0].edgeSwitch.ppp[4].ppp.queue headersQueueLength:vector ETV
attr interpolationmode sample-hold
attr title "queue length, vector"
vector 135 FatTreeNdp.Pod[1].racks[0].edgeSwitch.ppp[5].ppp transmissionState:vector ETV
attr interpolationmode sample-hold
attr source transmissionStateChanged
attr title "tx state, vector"
vector 136 FatTreeNdp.Pod[1].racks[0].edgeSwitch.ppp[5].ppp.queue dataQueueLength:vector ETV
attr interpolationmode sample-hold
attr title "queue length, vector"
vector 137 FatTreeNdp.Pod[1].racks[0].edgeSwitch.ppp[5].ppp.queue headersQueueLength:vector ETV
attr interpolationmode sample-hold
attr title "queue length, vector"
vector 138 FatTreeNdp.Pod[1].racks[1].servers[0].ppp[0].ppp transmissionState:vector ETV
attr interpolationmode sample-hold
attr source transmissionStateChanged
attr title "tx state, vector"
vector 139 FatTreeNdp.Pod[1].racks[1].servers[1].ppp[0].ppp transmissionState:vector ETV
attr interpolationmode sample-hold
attr source transmissionStateChanged
attr title "tx state, vector"
vector 140 FatTreeNdp.Pod[1].racks[1].servers[2].ppp[0].ppp transmissionState:vector ETV
attr interpolationmode sample-hold
attr source transmissionStateChanged
attr title "tx state, vector"
vector 141 FatTreeNdp.Pod[1].racks[1].edgeSwitch.ppp[0].ppp transmissionState:vector ETV
attr interpolationmode sample-hold
attr source transmissionStateChanged
attr title "tx state, vector"
vector 142 FatTreeNdp.Pod[1].racks[1].edgeSwitch.ppp[0].ppp.queue dataQueueLength:vector ETV
attr interpolationmode sample-hold
attr title "queue length, vector"
vector 143 FatTreeNdp.Pod[1].racks[1].edgeSwitch.ppp[0].ppp.queue headersQueueLength:vector ETV
attr interpolationmode sample-hold
attr title "queue length, vector"
vector 144 FatTreeNdp.Pod[1].racks[1].edgeSwitch.ppp[1].ppp transmissionState:vector ETV
attr interpolationmode sample-hold
attr source transmissionStateChanged
attr title "tx state, vector"
vector 145 FatTreeNdp.Pod[1].racks[1].edgeSwitch.ppp[1].ppp.queue dataQueueLength:vector ETV
attr interpolationmode sample-hold
attr title "queue length, vector"
vector 146 FatTreeNdp.Pod[1].racks[1].edgeSwitch.ppp[1].ppp.queue headersQueueLength:vector ETV
attr interpolationmode sample-hold
attr title "queue length, vector"
vector 147 FatTreeNdp.Pod[1].racks[1].edgeSwitch.ppp[2].ppp transmissionState:vector ETV
attr interpolationmode sample-hold
attr source transmissionStateChanged
attr title "tx state, vector"
vector 148 FatTreeNdp.Pod[1].racks[1].edgeSwitch.ppp[2].ppp.queue dataQueueLength:vector ETV
attr interpolationmode sample-hold
attr title "queue length, vector"
vector 149 FatTreeNdp.Pod[1].racks[1].edgeSwitch.ppp[2].ppp.queue headersQueueLength:vector ETV
attr interpolationmode sample-hold
attr title "queue length, vector"
vector 150 FatTreeNdp.Pod[1].racks[1].edgeSwitch.ppp[3].ppp transmissionState:vector ETV
attr interpolationmode sample-hold
attr source transmissionStateChanged
attr title "tx state, vector"
vector 151 FatTreeNdp.Pod[1].racks[1].edgeSwitch.ppp[3].ppp.queue dataQueueLength:vector ETV
attr interpolationmode sample-hold
attr title "queue length, vector"
vector 152 FatTreeNdp.Pod[1].racks[1].edgeSwitch.ppp[3].ppp.queue headersQueueLength:vector ETV
attr interpolationmode sample-hold
attr title "queue length, vector"
vector 153 FatTreeNdp.Pod[1].racks[1].edgeSwitch.ppp[4].ppp transmissionState:vector ETV
attr interpolationmode sample-hold
attr source transmissionStateChanged
attr title "tx state, vector"
vector 154 FatTreeNdp.Pod[1].racks[1].edgeSwitch.ppp[4].ppp.queue dataQueueLength:vector ETV
attr interpolationmode sample-hold
attr title "queue length, vector"
vector 155 FatTreeNdp.Pod[1].racks[1].edgeSwitch.ppp[4].ppp.queue headersQueueLength:vector ETV
attr interpolationmode sample-hold
attr title "queue length, vector"
vector 156 FatTreeNdp.Pod[1].racks[1].edgeSwitch.ppp[5].ppp transmissionState:vector ETV
attr interpolationmode sample-hold
attr source transmissionStateChanged
attr title "tx state, vector"
vector 157 FatTreeNdp.Pod[1].racks[1].edgeSwitch.ppp[5].ppp.queue dataQueueLength:vector ETV
attr interpolationmode sample-hold
attr title "queue length, vector"
vector 158 FatTreeNdp.Pod[1].racks[1].edgeSwitch.ppp[5].ppp.queue headersQueueLength:vector ETV
attr interpolationmode sample-hold
attr title "queue length, vector"
vector 159 FatTreeNdp.Pod[1].racks[2].servers[0].ppp[0].ppp transmissionState:vector ETV
attr interpolationmode sample-hold
attr source transmissionStateChanged
attr title "tx state, vector"
vector 160 FatTreeNdp.Pod[1].racks[2].servers[1].ppp[0].ppp transmissionState:vector ETV
attr interpolationmode sample-hold
attr source transmissionStateChanged
attr title "tx state, vector"
vector 161 FatTreeNdp.Pod[1].racks[2].servers[2].ppp[0].ppp transmissionState:vector ETV
attr interpolationmode sample-hold
attr source transmissionStateChanged
attr title "tx state, vector"
vector 162 FatTreeNdp.Pod[1].racks[2].edgeSwitch.ppp[0].ppp transmissionState:vector ETV
attr interpolationmode sample-hold
attr source transmissionStateChanged
attr title "tx state, vector"